32
Atoms. Timestep: 0
Ni 0.9125 0.9125 0.9125
Ni 0.9125 2.7375 2.7375
Ni 2.7375 0.9125 2.7375
Ni 2.7375 2.7375 0.9125
Ni 0.9125 0.9125 4.5625
Ni 0.9125 2.7375 6.3875
Ni 2.7375 0.9125 6.3875
Ni 2.7375 2.7375 4.5625
Ni 0.9125 4.5625 0.9125
Ni 0.9125 6.3875 2.7375
Ni 2.7375 4.5625 2.7375
Ni 2.7375 6.3875 0.9125
Ni 0.9125 4.5625 4.5625
Ni 0.9125 6.3875 6.3875
Ni 2.7375 4.5625 6.3875
Ni 2.7375 6.3875 4.5625
Ni 4.5625 0.9125 0.9125
Ni 4.5625 2.7375 2.7375
Ni 6.3875 0.9125 2.7375
Ni 6.3875 2.7375 0.9125
Ni 4.5625 0.9125 4.5625
Ni 4.5625 2.7375 6.3875
Ni 6.3875 0.9125 6.3875
Ni 6.3875 2.7375 4.5625
Ni 4.5625 4.5625 0.9125
Ni 4.5625 6.3875 2.7375
Ni 6.3875 4.5625 2.7375
Ni 6.3875 6.3875 0.9125
Ni 4.5625 4.5625 4.5625
Ni 4.5625 6.3875 6.3875
Ni 6.3875 4.5625 6.3875
Ni 6.3875 6.3875 4.5625
32
Atoms. Timestep: 100
Ni 0.939875 0.939875 0.939875
Ni 0.939875 2.74662 2.74662
Ni 2.74662 0.939875 2.74662
Ni 2.74662 2.74662 0.939875
Ni 0.939875 0.939875 4.55338
Ni 0.939875 2.74662 6.36013
Ni 2.74662 0.939875 6.36013
Ni 2.74662 2.74662 4.55338
Ni 0.939875 4.55338 0.939875
Ni 0.939875 6.36013 2.74662
Ni 2.74662 4.55338 2.74662
Ni 2.74662 6.36013 0.939875
Ni 0.939875 4.55338 4.55338
Ni 0.939875 6.36013 6.36013
Ni 2.74662 4.55338 6.36013
Ni 2.74662 6.36013 4.55338
Ni 4.55338 0.939875 0.939875
Ni 4.55338 2.74662 2.74662
Ni 6.36013 0.939875 2.74662
Ni 6.36013 2.74662 0.939875
Ni 4.55338 0.939875 4.55338
Ni 4.55338 2.74662 6.36013
Ni 6.36013 0.939875 6.36013
Ni 6.36013 2.74662 4.55338
Ni 4.55338 4.55338 0.939875
Ni 4.55338 6.36013 2.74662
Ni 6.36013 4.55338 2.74662
Ni 6.36013 6.36013 0.939875
Ni 4.55338 4.55338 4.55338
Ni 4.55338 6.36013 6.36013
Ni 6.36013 4.55338 6.36013
Ni 6.36013 6.36013 4.55338
32
Atoms. Timestep: 200
Ni 0.967249 0.967249 0.967249
Ni 0.967249 2.75575 2.75575
Ni 2.75575 0.967249 2.75575
Ni 2.75575 2.75575 0.967249
Ni 0.967249 0.967249 4.54425
Ni 0.967249 2.75575 6.33275
Ni 2.75575 0.967249 6.33275
Ni 2.75575 2.75575 4.54425
Ni 0.967249 4.54425 0.967249
Ni 0.967249 6.33275 2.75575
Ni 2.75575 4.54425 2.75575
Ni 2.75575 6.33275 0.967249
Ni 0.967249 4.54425 4.54425
Ni 0.967249 6.33275 6.33275
Ni 2.75575 4.54425 6.33275
Ni 2.75575 6.33275 4.54425
Ni 4.54425 0.967249 0.967249
Ni 4.54425 2.75575 2.75575
Ni 6.33275 0.967249 2.75575
Ni 6.33275 2.75575 0.967249
Ni 4.54425 0.967249 4.54425
Ni 4.54425 2.75575 6.33275
Ni 6.33275 0.967249 6.33275
Ni 6.33275 2.75575 4.54425
Ni 4.54425 4.54425 0.967249
Ni 4.54425 6.33275 2.75575
Ni 6.33275 4.54425 2.75575
Ni 6.33275 6.33275 0.967249
Ni 4.54425 4.54425 4.54425
Ni 4.54425 6.33275 6.33275
Ni 6.33275 4.54425 6.33275
Ni 6.33275 6.33275 4.54425
32
Atoms. Timestep: 300
Ni 0.994623 0.994623 0.994623
Ni 0.994623 2.76487 2.76487
Ni 2.76487 0.994623 2.76487
Ni 2.76487 2.76487 0.994623
Ni 0.994623 0.994623 4.53513
Ni 0.994623 2.76487 6.30538
Ni 2.76487 0.994623 6.30538
Ni 2.76487 2.76487 4.53513
Ni 0.994623 4.53513 0.994623
Ni 0.994623 6.30538 2.76487
Ni 2.76487 4.53513 2.76487
Ni 2.76487 6.30538 0.994623
Ni 0.994623 4.53513 4.53513
Ni 0.994623 6.30538 6.30538
Ni 2.76487 4.53513 6.30538
Ni 2.76487 6.30538 4.53513
Ni 4.53513 0.994623 0.994623
Ni 4.53513 2.76487 2.76487
Ni 6.30538 0.994623 2.76487
Ni 6.30538 2.76487 0.994623
Ni 4.53513 0.994623 4.53513
Ni 4.53513 2.76487 6.30538
Ni 6.30538 0.994623 6.30538
Ni 6.30538 2.76487 4.53513
Ni 4.53513 4.53513 0.994623
Ni 4.53513 6.30538 2.76487
Ni 6.30538 4.53513 2.76487
Ni 6.30538 6.30538 0.994623
Ni 4.53513 4.53513 4.53513
Ni 4.53513 6.30538 6.30538
Ni 6.30538 4.53513 6.30538
Ni 6.30538 6.30538 4.53513
32
Atoms. Timestep: 382
Ni 1.0167 1.0167 1.0167
Ni 1.0167 2.77223 2.77223
Ni 2.77223 1.0167 2.77223
Ni 2.77223 2.77223 1.0167
Ni 1.0167 1.0167 4.52777
Ni 1.0167 2.77223 6.2833
Ni 2.77223 1.0167 6.2833
Ni 2.77223 2.77223 4.52777
Ni 1.0167 4.52777 1.0167
Ni 1.0167 6.2833 2.77223
Ni 2.77223 4.52777 2.77223
Ni 2.77223 6.2833 1.0167
Ni 1.0167 4.52777 4.52777
Ni 1.0167 6.2833 6.2833
Ni 2.77223 4.52777 6.2833
Ni 2.77223 6.2833 4.52777
Ni 4.52777 1.0167 1.0167
Ni 4.52777 2.77223 2.77223
Ni 6.2833 1.0167 2.77223
Ni 6.2833 2.77223 1.0167
Ni 4.52777 1.0167 4.52777
Ni 4.52777 2.77223 6.2833
Ni 6.2833 1.0167 6.2833
Ni 6.2833 2.77223 4.52777
Ni 4.52777 4.52777 1.0167
Ni 4.52777 6.2833 2.77223
Ni 6.2833 4.52777 2.77223
Ni 6.2833 6.2833 1.0167
Ni 4.52777 4.52777 4.52777
Ni 4.52777 6.2833 6.2833
Ni 6.2833 4.52777 6.2833
Ni 6.2833 6.2833 4.52777
32
Atoms. Timestep: 400
Ni 0.989606 1.01862 1.02886
Ni 1.04981 2.72864 2.73473
Ni 2.7292 1.0117 2.75204
Ni 2.72314 2.81578 1.0552
Ni 1.07576 1.02412 4.54073
Ni 1.03176 2.8061 6.32374
Ni 2.81857 1.03576 6.30431
Ni 2.81224 2.80251 4.45298
Ni 1.06538 4.49975 1.0441
Ni 0.982585 6.29337 2.74438
Ni 2.76294 4.56021 2.78721
Ni 2.76641 6.21441 0.973633
Ni 1.03649 4.52992 4.55604
Ni 0.964669 6.23467 6.30084
Ni 2.77027 4.54053 6.29577
Ni 2.78887 6.28933 4.49103
Ni 4.5741 0.998014 0.993482
Ni 4.55296 2.81446 2.71851
Ni 6.31816 1.08022 2.79096
Ni 6.25345 2.73839 0.977081
Ni 4.51045 1.00671 4.49347
Ni 4.45536 2.82932 6.3283
Ni 6.24767 1.02994 6.24734
Ni 6.25753 2.80085 4.50158
Ni 4.50053 4.53417 0.984209
Ni 4.55839 6.29146 2.81221
Ni 6.24639 4.47722 2.79311
Ni 6.31898 6.2858 1.03375
Ni 4.51669 4.5449 4.54197
Ni 4.52051 6.28321 6.33755
Ni 6.26983 4.45956 6.26444
Ni 6.27188 6.26456 4.57648
32
Atoms. Timestep: 500
Ni 0.944947 1.05762 0.948512
Ni 0.991248 2.80514 2.82947
Ni 2.75039 0.9337 2.74682
Ni 2.846 2.7635 1.09526
Ni 1.05128 0.976061 4.54175
Ni 0.969971 2.79197 6.21058
Ni 2.73301 1.01647 6.29674
Ni 2.72921 2.74936 4.5835
Ni 1.01433 4.62806 1.11366
Ni 1.05127 6.35152 2.83593
Ni 2.77278 4.57262 2.76047
Ni 2.74034 6.23429 0.946864
Ni 1.00484 4.50833 4.50294
Ni 1.00586 6.31294 6.34369
Ni 2.76915 4.491 6.27721
Ni 2.77439 6.19415 4.55404
Ni 4.49221 1.01293 1.04512
Ni 4.45184 2.71449 2.80983
Ni 6.36441 1.0607 2.77496
Ni 6.28913 2.81473 1.03514
Ni 4.4692 1.03486 4.46293
Ni 4.50244 2.74581 6.21658
Ni 6.22345 1.00709 6.34054
Ni 6.2097 2.78337 4.52495
Ni 4.45541 4.48594 1.07438
Ni 4.4966 6.32912 2.7886
Ni 6.28962 4.6073 2.76975
Ni 6.19037 6.30407 1.01115
Ni 4.57831 4.51019 4.52011
Ni 4.539 6.32432 6.24924
Ni 6.32269 4.56381 6.3206
Ni 6.2865 6.38038 4.45473
32
Atoms. Timestep: 600
Ni 0.973418 0.918667 1.04124
Ni 0.933325 2.85317 2.81962
Ni 2.82855 1.14767 2.82206
Ni 2.79851 2.7879 0.928089
Ni 0.986922 1.01092 4.5166
Ni 1.04655 2.74595 6.31439
Ni 2.7135 1.06901 6.29456
Ni 2.72978 2.80857 4.57068
Ni 0.974022 4.54514 0.931437
Ni 0.945092 6.22525 2.71536
Ni 2.79378 4.53636 2.79033
Ni 2.74809 6.44926 1.09811
Ni 0.954418 4.56032 4.56291
Ni 1.07521 6.32965 6.30136
Ni 2.7298 4.57995 6.27191
Ni 2.72194 6.38991 4.53299
Ni 4.46461 1.04299 1.00619
Ni 4.54463 2.83385 2.78441
Ni 6.19313 0.954433 2.78388
Ni 6.26018 2.75441 1.04805
Ni 4.59967 1.07054 4.61664
Ni 4.56121 2.80711 6.28763
Ni 6.28738 1.06657 6.31087
Ni 6.2609 2.82879 4.54545
Ni 4.51819 4.58304 0.997113
Ni 4.45527 6.28604 2.78233
Ni 6.31865 4.50859 2.84492
Ni 6.33536 6.31414 0.983445
Ni 4.39565 4.55162 4.56546
Ni 4.48311 6.32603 6.38769
Ni 6.18101 4.54335 6.31769
Ni 6.25333 6.28877 4.53818
32
Atoms. Timestep: 700
Ni 1.04488 1.06411 0.990006
Ni 1.00779 2.81805 2.81806
Ni 2.69202 0.928475 2.73499
Ni 2.66734 2.8204 1.03216
Ni 0.991551 1.16217 4.6697
Ni 0.993765 2.85863 6.36674
Ni 2.75025 1.03071 6.3678
Ni 2.80412 2.86685 4.50583
Ni 0.929965 4.55455 1.09285
Ni 0.943999 6.39095 2.79364
Ni 2.7529 4.57416 2.91247
Ni 2.72773 6.31201 0.951623
Ni 1.00732 4.55639 4.50905
Ni 0.92233 6.35839 6.31844
Ni 2.73483 4.52772 6.33012
Ni 2.76219 6.25432 4.58883
Ni 4.56037 1.07627 1.06429
Ni 4.50833 2.83793 2.82308
Ni 6.27279 1.16566 2.80708
Ni 6.16947 2.93752 1.00048
Ni 4.40805 1.05799 4.48339
Ni 4.45043 2.84414 6.40456
Ni 6.20884 1.08256 6.25954
Ni 6.27819 2.82432 4.51088
Ni 4.48466 4.57996 1.00351
Ni 4.54214 6.37969 2.76999
Ni 6.24639 4.56017 2.79619
Ni 6.28607 6.35048 1.08811
Ni 4.5846 4.50616 4.53866
Ni 4.49744 6.26618 6.23672
Ni 6.28753 4.56457 6.30703
Ni 6.2866 6.3009 4.5826
32
Atoms. Timestep: 800
Ni 1.05846 1.14192 1.13691
Ni 0.995726 2.88103 2.81477
Ni 2.73812 1.17425 2.86056
Ni 2.75311 2.84915 1.02053
Ni 0.903715 0.996512 4.43343
Ni 0.927058 2.81414 6.2817
Ni 2.69739 1.09935 6.33051
Ni 2.64354 2.87153 4.54374
Ni 1.02509 4.57723 1.01249
Ni 1.0786 6.30461 2.84432
Ni 2.66103 4.53975 2.78756
Ni 2.69054 6.427 1.09022
Ni 0.944196 4.61393 4.61427
Ni 0.992475 6.38231 6.32849
Ni 2.81916 4.64265 6.33835
Ni 2.8031 6.38532 4.50279
Ni 4.44745 1.07285 1.07651
Ni 4.53792 2.82012 2.88292
Ni 6.24213 1.0346 2.78031
Ni 6.30612 2.80097 1.10747
Ni 4.52045 1.09759 4.54693
Ni 4.47758 2.90903 6.26974
Ni 6.37261 1.00788 6.37063
Ni 6.23565 2.82109 4.52148
Ni 4.55863 4.49531 1.05163
Ni 4.48115 6.37997 2.86735
Ni 6.17983 4.61915 2.76329
Ni 6.14819 6.27189 1.05306
Ni 4.40955 4.70722 4.53961
Ni 4.42892 6.44118 6.28315
Ni 6.25104 4.6013 6.35479
Ni 6.20678 6.35006 4.60832
32
Atoms. Timestep: 900
Ni 0.85103 1.11181 0.960142
Ni 1.00666 2.78555 2.77104
Ni 2.71419 1.09002 2.81277
Ni 2.67377 2.85255 1.14739
Ni 1.03948 1.1574 4.64543
Ni 0.993751 2.89043 6.41174
Ni 2.79802 1.05299 6.36275
Ni 2.78338 2.82072 4.57444
Ni 0.965423 4.62936 1.11693
Ni 0.956306 6.43959 2.82704
Ni 2.76704 4.71565 2.81829
Ni 2.71205 6.37604 1.0691
Ni 1.02743 4.60188 4.55022
Ni 0.947807 6.35409 6.33872
Ni 2.6628 4.58662 6.2725
Ni 2.65744 6.39793 4.58248
Ni 4.42447 1.07903 1.04103
Ni 4.42559 2.85558 2.65907
Ni 6.17933 1.1999 2.93396
Ni 6.25192 2.90164 1.08489
Ni 4.48266 1.01338 4.54631
Ni 4.43601 2.88081 6.3762
Ni 6.17078 1.14758 6.23945
Ni 6.2762 2.83273 4.63781
Ni 4.50294 4.71548 1.04475
Ni 4.55187 6.35547 2.87357
Ni 6.24086 4.57376 2.83877
Ni 6.25298 6.43172 0.961144
Ni 4.4904 4.60441 4.66259
Ni 4.55917 6.31257 6.35294
Ni 6.21716 4.63007 6.34639
Ni 6.23983 6.46907 4.52536
32
Atoms. Timestep: 1000
Ni 1.07493 1.15479 1.1479
Ni 0.870762 2.93761 2.83397
Ni 2.75059 1.17579 2.81049
Ni 2.77222 2.88803 1.04739
Ni 0.879021 1.14698 4.5436
Ni 0.927376 2.90472 6.25531
Ni 2.61898 1.24075 6.26131
Ni 2.67405 2.98617 4.69186
Ni 0.923559 4.59546 1.01768
Ni 0.953963 6.3081 2.86724
Ni 2.69628 4.5664 2.78303
Ni 2.80015 6.35593 1.04041
Ni 0.979021 4.69137 4.62532
Ni 0.999569 6.4317 6.36957
Ni 2.71573 4.67827 6.37724
Ni 2.67535 6.35628 4.57356
Ni 4.52618 1.21981 1.08268
Ni 4.4657 2.86478 2.87171
Ni 6.30946 1.07203 2.79573
Ni 6.24272 2.9215 1.02977
Ni 4.50545 1.19683 4.63361
Ni 4.58425 2.82422 6.31601
Ni 6.24286 1.08124 6.45072
Ni 6.21586 2.85615 4.57898
Ni 4.40678 4.60241 1.1238
Ni 4.32867 6.40975 2.76712
Ni 6.25573 4.68485 2.79638
Ni 6.27141 6.31719 1.09201
Ni 4.50438 4.64444 4.58208
Ni 4.48628 6.45875 6.36446
Ni 6.17082 4.66844 6.3946
Ni 6.14988 6.36935 4.63171
32
Atoms. Timestep: 1100
Ni 0.843939 1.14794 1.07013
Ni 0.970315 2.93209 2.8651
Ni 2.75669 1.12264 2.78782
Ni 2.7002 2.92171 1.10182
Ni 1.00833 1.15537 4.64831
Ni 1.03698 2.88106 6.36339
Ni 2.73298 1.13862 6.42738
Ni 2.69411 2.84067 4.54306
Ni 0.937312 4.75885 1.15095
Ni 0.872482 6.48807 2.83439
Ni 2.7293 4.73163 2.87842
Ni 2.65038 6.45311 1.19051
Ni 0.963678 4.62515 4.53957
Ni 0.941701 6.35684 6.29832
Ni 2.6931 4.66647 6.38517
Ni 2.75134 6.391 4.60919
Ni 4.4346 1.07854 1.13161
Ni 4.44712 2.97561 2.86953
Ni 6.20135 1.24345 2.83439
Ni 6.16741 2.84782 1.08175
Ni 4.45432 1.25194 4.63977
Ni 4.38258 2.931 6.38186
Ni 6.14525 1.24035 6.23744
Ni 6.17055 2.92959 4.57488
Ni 4.49378 4.69316 1.06921
Ni 4.51139 6.35732 2.82291
Ni 6.26317 4.67007 2.85682
Ni 6.17228 6.45928 1.15545
Ni 4.40976 4.68268 4.55505
Ni 4.44879 6.38001 6.3154
Ni 6.31439 4.619 6.31722
Ni 6.39522 6.39036 4.59572
32
Atoms. Timestep: 1200
Ni 0.998088 1.15448 1.1287
Ni 0.979729 2.89693 2.87299
Ni 2.6257 1.19744 2.88818
Ni 2.67641 2.89825 1.00228
Ni 0.902014 1.18249 4.61474
Ni 0.845172 2.95274 6.41009
Ni 2.78017 1.22062 6.30102
Ni 2.77305 2.97913 4.60201
Ni 1.01386 4.67507 1.06201
Ni 0.964081 6.35516 2.8164
Ni 2.71116 4.67885 2.88513
Ni 2.7661 6.50864 1.03006
Ni 0.805838 4.79585 4.66642
Ni 0.935968 6.48357 6.35377
Ni 2.74668 4.66253 6.29757
Ni 2.66313 6.46507 4.65528
Ni 4.4385 1.22149 1.08551
Ni 4.51156 2.86342 2.87361
Ni 6.1738 1.1 2.79622
Ni 6.23379 2.93781 1.20208
Ni 4.36926 1.13489 4.59354
Ni 4.4799 2.89871 6.35373
Ni 6.31017 1.17691 6.39774
Ni 6.28116 2.90713 4.63557
Ni 4.46557 4.69267 1.13652
Ni 4.41625 6.45116 2.78894
Ni 6.1319 4.72113 2.91509
Ni 6.26065 6.45648 1.18075
Ni 4.43473 4.66922 4.60998
Ni 4.38162 6.50346 6.43896
Ni 6.16698 4.79834 6.32607
Ni 6.16771 6.47633 4.58829
32
Atoms. Timestep: 1300
Ni 0.88454 1.28466 1.12272
Ni 0.897248 2.92454 2.76728
Ni 2.7489 1.22347 2.83421
Ni 2.67993 2.94802 1.18768
Ni 0.926554 1.22825 4.59523
Ni 0.917723 2.94229 6.35779
Ni 2.6547 1.11353 6.47544
Ni 2.76093 2.9499 4.71409
Ni 0.837181 4.67472 1.10496
Ni 0.85544 6.52117 2.97743
Ni 2.65253 4.72526 2.81007
Ni 2.69352 6.41908 1.0852
Ni 1.05657 4.67279 4.64363
Ni 0.919944 6.48 6.39906
Ni 2.69089 4.76291 6.44436
Ni 2.72724 6.51567 4.59483
Ni 4.46805 1.19778 1.10073
Ni 4.40767 3.04633 2.87507
Ni 6.22022 1.27044 2.89819
Ni 6.19417 2.9682 1.01878
Ni 4.42341 1.1974 4.61237
Ni 4.34118 2.97415 6.35719
Ni 6.21737 1.16134 6.42788
Ni 6.22094 3.05553 4.62998
Ni 4.40711 4.7397 1.10539
Ni 4.56005 6.49086 2.93034
Ni 6.18868 4.7344 2.78766
Ni 6.1423 6.45765 1.00996
Ni 4.52182 4.71342 4.66917
Ni 4.40799 6.45844 6.32999
Ni 6.28321 4.62223 6.34781
Ni 6.21687 6.39978 4.67303
32
Atoms. Timestep: 1400
Ni 0.918618 1.2715 1.0478
Ni 0.910461 3.04194 2.83433
Ni 2.6979 1.24659 2.93129
Ni 2.70466 3.01259 1.19197
Ni 0.959619 1.14002 4.62603
Ni 0.886962 3.05318 6.44133
Ni 2.70195 1.30323 6.28638
Ni 2.55673 2.99069 4.57144
Ni 1.00292 4.73358 1.14249
Ni 0.924382 6.47537 2.91102
Ni 2.75917 4.70072 2.87169
Ni 2.69233 6.49344 1.08139
Ni 0.80462 4.72995 4.65807
Ni 0.964372 6.46942 6.40057
Ni 2.68337 4.69578 6.32906
Ni 2.66376 6.46771 4.67135
Ni 4.38772 1.18706 1.12553
Ni 4.35815 2.94924 2.84815
Ni 6.26556 1.19001 2.89182
Ni 6.34126 2.98962 1.2086
Ni 4.46267 1.21546 4.60879
Ni 4.55328 3.08347 6.39049
Ni 6.14628 1.2339 6.42172
Ni 6.13491 2.96853 4.62142
Ni 4.43607 4.72242 1.12566
Ni 4.33114 6.47191 2.89529
Ni 6.18665 4.68999 2.95199
Ni 6.19053 6.4724 1.14229
Ni 4.40568 4.76794 4.63036
Ni 4.49519 6.4858 6.41281
Ni 6.15754 4.77852 6.46615
Ni 6.15441 6.60128 4.52903
